# vtk DataFile Version 5.1
vtk output
ASCII
DATASET STRUCTURED_POINTS
EXTENT 0 59 0 59 0 59
SPACING 0.0338983 0.0338983 0.0338983
ORIGIN -1 -1 -1
POINT_DATA 216000
SCALARS scalars double
LOOKUP_TABLE default
0.64133952313 0.74822241316 0.63192481979 0.88161816134 0.6072439044 0.6494482865 0.82680617395 0.8801992757 0.51420497933 
0.29480670304 0.78342994057 0.80582500235 0.35739527299 0.4197143716 0.42491866134 0.013485100499 0.49226705345 0.65501645592 
0.020543089592 0.70396310587 0.035074486464 0.18665858903 0.096412248796 0.0016376737726 0.093283529479 0.36263595338 0.8297972133 
0.81473878567 0.80479537893 0.8775330527 0.91279404385 0.83203348562 0.36233202654 0.35915207768 0.30080630938 0.0057999624473 
0.18324069212 0.1607220931 0.65646496609 0.59971264099 0.81479410378 0.30532615888 0.14484901565 0.4010462371 0.41934120284 
0.37940789758 0.73013209003 0.72027821162 0.60221593701 0.38777856934 0.46141595014 0.64629686905 0.66331423974 0.61744275264 
0.71807876764 0.6583956247 0.74367370065 0.74420550489 0.74777572151 0.74881650484 0.83803951996 0.83464000276 0.67468560589 
0.67947724109 0.8165755421 0.7061675986 0.63016550779 0.86647153044 0.79132854148 0.76251779458 0.53343437188 0.72575962788 
0.75560538439 0.37800356662 0.47766544997 0.77233468757 0.83896129287 0.80364392544 0.66363087653 0.72790787519 0.60968045667 
0.5958773871 0.016579504708 0.28113943896 0.0011673304933 0.010095821498 0.55902694612 0.83507766818 0.62848488134 0.83795142011 
0.83732533847 0.61058112392 0.003257272382 0.0014164177411 0.4624283673 0.52535522069 0.48088308108 0.60302786988 0.70218000374 
0.67155893334 0.92216316333 0.80548159572 0.73997052132 0.45793950543 0.36356364584 0.35912858982 0.53773726546 0.79248482163 
0.54290756094 0.61959633817 0.64315050312 0.59444004232 0.52801625184 0.38080662286 0.76387538696 0.6865814686 0.73617279805 
0.73749924555 0.36014698006 0.74814187131 0.62877898292 0.70760241431 0.65784005365 0.72834268011 0.7870398997 0.72163520875 
0.62314255719 0.526014303 0.80334795809 0.77171091865 0.63346969287 0.43669089638 0.74468043636 0.56239683013 0.42094800204 
0.7608570115 0.83781770631 0.76357021488 0.82157362231 0.8597823341 0.73813229156 0.8363513073 0.67440980392 0.28396157703 
0.78800930194 0.87882485522 0.86775583453 0.60548183104 0.61411552625 0.7808521004 0.83462967584 0.6193657234 0.62725109585 
0.6284044622 0.39146559711 0.61926213026 0.74316041662 0.79854551602 0.84470231868 0.67520381191 0.7965251828 0.83803007736 
0.77888730107 0.39589946905 0.42451546037 0.7439584906 0.2048992389 0.62072838948 0.56968733333 0.72502525749 0.81980999882 
0.31189959545 0.4664655091 0.7003887864 0.62810539923 0.47979272023 0.36813394864 0.33018945467 0.65104923435 0.36125940678 
0.62860486937 0.83784276457 0.8091805321 0.63681206442 0.61029532365 0.83234842938 0.69312124115 0.58146595173 0.80666289398 
0.024846740845 0.55959642011 0.58331017495 0.68950023263 0.70102114937 0.47585948299 0.88021398406 0.62368356232 0.87010016117 
0.82873623119 0.82360556258 0.83800616203 0.83623465667 0.90034427835 0.47390529964 0.8556966711 0.79954649726 0.82007583887 
0.8033436295 0.75931533403 0.46202523091 0.66629317222 0.6145184241 0.58586957326 0.62864093387 0.66650246148 0.81941556534 
0.8440447385 0.83720541163 0.827278162 0.83119205013 0.88666629104 0.82811617867 0.82058487145 0.41091674214 0.54104329023 
0.710733358 0.39812934607 0.67847278366 0.47608866389 0.67254465207 0.77278316456 0.86034712068 0.80894148627 0.88004064593 
0.79851724797 0.68487562392 0.48874639615 0.71560677333 0.82004453079 0.36827788951 0.69432583464 0.83589099275 0.83139418677 
0.83664956248 0.82271827608 0.79404838075 0.85034117076 0.83593443428 0.83303444936 0.83388693149 0.40340853079 0.46524290204 
0.47924099099 0.45494639501 0.77195041377 0.82562235885 0.83210823452 0.83419028958 0.83234612176 0.88120466115 0.86888952681 
0.81994752335 0.84090774498 0.35196397523 0.33929378105 0.44258754223 0.51036024505 0.82883815552 0.26568068735 0.39029074507 
0.82552450674 0.37096385366 0.34923153096 0.62011339963 0.60269636642 0.68308525144 0.81926708796 0.8650549221 0.84592706768 
0.83747246105 0.81415870394 0.80513270801 0.81538973161 0.69829103907 0.58699157931 0.73526738453 0.36218094285 0.64928976594 
0.82165777138 0.80696883807 0.82257330824 0.8312285646 0.68393612546 0.83644513243 0.629625588 0.74914180505 0.82055316285 
0.74034038893 0.76236844983 0.64513349511 0.50530254365 0.80963471023 0.77668101681 0.69653861771 0.35320628767 0.10168194084 
0.4509241974 0.88828399178 0.85730565148 0.8056745491 0.68132842189 0.47095918872 0.77217121079 0.51924789781 0.62880251051 
0.62877419969 0.82185345632 0.83803639721 0.74450950054 0.83737781225 0.8371701124 0.8584930019 0.81575283279 0.77922139379 
0.45788651369 0.65960712112 0.50700024932 0.71922577841 0.80941732988 0.84577599503 0.51662774807 0.57333438096 0.36881055494 
0.74271617782 0.79509057101 0.7091896903 0.88372741597 0.83770481376 0.83769519875 0.74328705992 0.83795251696 0.83804121046 
0.65317629312 0.633883596 0.58339285239 0.78305790915 0.5339558871 0.68090415936 0.7282339604 0.74803472663 0.65055741497 
0.66507308129 0.74909115881 0.74900124569 0.66662887024 0.74914879908 0.69970721975 0.72641623962 0.72198953985 0.62893929476 
0.72457773632 0.64189257912 0.84250561429 0.69755318958 0.83680056448 0.70056037874 0.83173826781 0.83069680817 0.82153000758 
0.82888976689 0.64931185247 0.6493085683 0.64931232096 0.64832140567 0.75717453419 0.81050263163 0.62859426475 0.79805981514 
0.71533286232 0.70907534919 0.83395017213 0.8766854454 0.80098917875 0.73339842417 0.68446220461 0.68854184404 0.7528763457 
0.71144864131 0.76765126103 0.69284291382 0.55089402801 0.50592205701 0.36803703763 0.77619347192 0.79103032522 0.82347279083 
0.6854035369 0.83711772943 0.72765146429 0.74450131132 0.55112825666 0.65958510522 0.83093878517 0.76130270274 0.46852686903 
0.64931230085 0.64392021873 0.74583482675 0.66216318157 0.73363616174 0.56380397733 0.80963904236 0.82122643925 0.34407828362 
0.80932994941 0.81155423356 0.74914173608 0.73442048808 0.74889563532 0.74109137462 0.73570850306 0.51754855847 0.65054648805 
0.65004148974 0.63754853819 0.012299664942 0.62551637981 0.63318789133 0.62861817904 0.63253515462 0.64930824335 0.40451385979 
0.64901853767 0.62591508437 0.70244085853 0.82395478489 0.83277703337 0.74670406079 0.76326564771 0.81408822622 0.82903764728 
0.85282620901 0.83935181201 0.81732421526 0.69846229567 0.60614341696 0.57238391658 0.58213892708 0.80605133659 0.81429415858 
0.73113692702 0.58870000473 0.68580804479 0.7586764686 0.69780495623 0.89689199903 0.83470512419 0.83172652368 0.81515343529 
0.65849875706 0.69497056414 0.89175117951 0.78171828262 0.66866427181 0.47291292342 0.64550819768 0.64930525536 0.78046579553 
0.72810144209 0.7384591391 0.59378941808 0.5965936783 0.54703584081 0.69491280293 0.74913700676 0.74868512505 0.74913900872 
0.74904284126 0.74912886837 0.74909147422 0.34426632585 0.63376171129 0.65419414018 0.66515335931 0.62726988949 0.50311258162 
0.25328927239 0.53843096953 0.70191107866 0.81186131039 0.62520432973 0.7201275627 0.72393295075 0.7486842649 0.74913654259 
0.6514290664 0.60113359168 0.77300556653 0.8020440249 0.84719624983 0.79687162751 0.78558166501 0.558037512 0.82599843522 
0.78459627801 0.65750369452 0.42822054255 0.77559123099 0.78707842886 0.7812921753 0.82323788192 0.83153992568 0.76534171938 
0.66602186055 0.80240199392 0.81253750871 0.80868803296 0.80866459695 0.82359737845 0.82571713808 0.65065472802 0.84407772378 
0.65308006342 0.74912946848 0.74881908201 0.63886092253 0.79164859003 0.35627551631 0.38568336415 0.63245773585 0.56519488733 
0.564272274 0.34411730287 0.34407696408 0.74401583708 0.38269633278 0.58470583467 0.74904542969 0.34409543021 0.34409837846 
0.36113131559 0.63257913 0.66464200601 0.70990058303 0.051524498662 0.00016929259191 0.36378971492 0.44389139071 0.64885783102 
0.64081255532 0.73435516458 0.69866683205 0.66420694946 0.7489900399 0.74914187697 0.62661987938 0.43271867339 0.74453822217 
0.64396219578 0.64479147979 0.75194770428 0.80054186511 0.48507024133 0.79469123605 0.76114842371 0.7554787915 0.64046672658 
0.70453302038 0.72779275568 0.60990104374 0.54229711689 0.75350319434 0.74016081076 0.77552783025 0.69987584137 0.64796505603 
0.80842928749 0.79041536254 0.7463556001 0.70466122662 0.75708455832 0.52622407986 0.63362673486 0.74914187697 0.74858511159 
0.47281216427 0.68042741643 0.50936055509 0.42668307104 0.64552198035 0.56266003183 0.74912884944 0.74903729444 0.56399764283 
0.80453713514 0.56416203758 0.35224068499 0.70847762747 0.34408580653 0.3441403032 0.72286599281 0.7778578964 0.65643890411 
0.69993644605 0.12256080804 0.013722318574 0.27211366293 0.16714850752 0.72535805131 0.67643111814 0.45861832927 0.64919586726 
0.66823645901 0.63090243607 0.62835742936 0.36318052675 0.36487928027 0.3631723064 0.61617740325 0.68647841371 0.73985562482 
0.71996316099 0.7612344668 0.70781082356 0.68283756252 0.79199889217 0.74701580059 0.65672673077 0.66781574557 0.63514735152 
0.70092237543 0.76903516006 0.74616881629 0.68149266174 0.69428461927 0.81272055835 0.73046257629 0.71985275717 0.36317699095 
0.36317198228 0.36319599905 0.36372044313 0.36317223319 0.62847265593 0.64674030054 0.65582070665 0.67522535757 0.39769804891 
0.75479918066 0.64707086659 0.74529984628 0.74862138386 0.70352256823 0.70198664515 0.74888495404 0.53083564426 0.65074661819 
0.74830567274 0.55820596808 0.21869341456 0.63442441012 0.72767749324 0.63919377479 0.67241510142 0.13976628811 0.62924691674 
0.70099394473 0.38778759899 0.7781232181 0.77971351983 0.64047106039 0.63615548482 0.30250477137 0.45351532979 0.54993514266 
0.55800338086 0.69114212226 0.74441614721 0.7480268045 0.7375431034 0.68473157015 0.68212587296 0.69768852036 0.73348381964 
0.79424771548 0.7228767102 0.61510597441 0.83471784487 0.81730197265 0.81972890394 0.83439144533 0.71644670782 0.73510126383 
0.80562914524 0.76202631838 0.70594329502 0.68795711173 0.68457996963 0.69646902663 0.68540769145 0.6816566599 0.68810135245 
0.69124882132 0.68024663438 0.65513295958 0.8494535606 0.27230899405 0.35917857114 0.71150318684 0.46008121235 0.68143040239 
0.73517238159 0.70772256376 0.65439839195 0.74905602936 0.74894123213 0.66228192458 0.44342222996 0.52370159763 0.054553145124 
0.71768328343 0.51014177137 0.37735563683 0.52742978086 0.48590298979 0.63585475786 0.53953843556 0.6320179018 0.76538932445 
0.56888286103 0.72679120727 0.15268797868 0.3371416323 0.36332117594 0.49854499981 0.67051288992 0.58509908556 0.68115856057 
0.74230584523 0.80427292733 0.78735471234 0.76021516326 0.70089743104 0.73792774295 0.79386887609 0.78055418351 0.65342017072 
0.79738837259 0.5876392467 0.57020510804 0.78471316935 0.76460616288 0.79765055872 0.80399841122 0.74806318096 0.73221964974 
0.79579341902 0.69506142398 0.78328986504 0.68696002325 0.37934402108 0.58802628163 0.75731697996 0.62675427977 0.36590337711 
0.78480599303 0.77203946019 0.68949265123 0.54190606688 0.66348800888 0.46197836892 0.75473476252 0.6339113259 0.46029818778 
0.74717863693 0.74798130245 0.17958267873 0.65838466191 0.084572944657 0.0072796038152 0.68298320646 0.39296138101 0.68594682031 
0.73740389578 0.61632111773 0.73334842787 0.67914928765 0.51976849615 0.38727305888 0.31556899546 0.60738366395 0.46719580366 
0.31210750327 0.36352527944 0.36402664631 0.36321822841 0.58586830246 0.45098409106 0.65943559415 0.81175614488 0.74124165968 
0.80493143067 0.72955761191 0.74368124516 0.77850852787 0.69955907917 0.68867937289 0.7933380237 0.13203733158 0.30599972751 
0.78925276541 0.62990859523 0.65917957104 0.76939687477 0.7188870166 0.71729023702 0.71786241867 0.73756954509 0.7399860852 
0.76474795767 0.5373469909 0.58545840831 0.36567961644 0.36375585272 0.36359838719 0.36333630407 0.4569136943 0.62191608961 
0.64847055667 0.50042301724 0.45506396248 0.56441131917 0.44424483023 0.35400095605 0.6929256903 0.6503717905 0.72381963872 
0.6469713098 0.67744433955 0.73483861302 0.75055404526 0.80479788162 0.65344334276 0.63268437042 0.63159896618 0.64542856827 
0.64095740008 0.75776631332 0.57676830003 0.23628224926 0.51355060688 0.59082019624 0.40527914085 0.41585316277 0.36327199288 
0.35259131944 0.44902472093 0.40587206762 0.58721368587 0.56468445399 0.64328413763 0.8073815903 0.75311852592 0.82027863798 
0.82234282167 0.79682559795 0.64460306467 0.79889313057 0.8015799349 0.66051041025 0.86171037478 0.62833993174 0.77392201736 
0.7765746568 0.82315231816 0.78206415771 0.78930612104 0.7316874104 0.54131008693 0.54899953928 0.45783474785 0.51931682381 
0.44894169815 0.35778920009 0.43909919236 0.4400416152 0.56942716617 0.36732906685 0.51858323682 0.56659626446 0.7063200922 
0.54485596745 0.46158342216 0.45115806181 0.64982071944 0.71974385454 0.51861704242 0.63692142237 0.50788260386 0.11869351817 
0.74243664422 0.74197852887 0.6796259743 0.64376520023 0.63467140801 0.63534965012 0.67634028099 0.72242251351 0.47434055176 
0.63602004346 0.34829895756 0.20570937685 0.36655774285 0.38585366961 0.36354462264 0.3511041336 0.51495848471 0.36317440872 
0.36637205682 0.58141011571 0.72048749628 0.86870903163 0.75811455305 0.80366349221 0.76549031881 0.73947320485 0.54219608958 
0.78457108023 0.79030942965 0.7832729293 0.82728160574 0.55170270893 0.64156649987 0.76034698079 0.67094272798 0.77883906519 
0.90363786635 0.37255921051 0.3709300928 0.36341468545 0.40376506535 0.27148875641 0.50882986979 0.35300418618 0.4057847452 
0.19932775148 0.47382301954 0.44271101742 0.32900127158 0.41066509355 0.40652022241 0.73112104333 0.76173899056 0.66056494223 
0.61542440623 0.4631183405 0.37046365634 0.39542330878 0.36317829657 0.34281047168 0.70570121101 0.7340414442 0.52768262915 
0.49397478846 0.32688820856 0.35594885809 0.4801268706 0.38092742944 0.64931160948 0.47220301446 0.45480146028 0.25546646803 
0.39733538646 0.22616189224 0.5041422596 0.23214771052 0.13055253945 0.15623294814 0.54826378098 0.52791035397 0.47501144949 
0.82805515243 0.79733486586 0.78592555864 0.82747457257 0.81840643807 0.66787058151 0.64520996761 0.77245260794 0.72652038311 
0.69303571656 0.70822957339 0.81452672814 0.82570789062 0.77326258334 0.82891584401 0.80977236052 0.58019270061 0.53436702223 
0.49425036137 0.11806907538 0.088501405813 0.32995340228 0.51898062535 0.24067362529 0.40324173452 0.16806626182 0.33528408513 
0.5161720695 0.61672043063 0.35948858756 0.37341544542 0.54332797654 0.59285014057 0.54807103683 0.7301490818 0.3658246431 
0.39581321888 0.37900993876 0.21226364197 0.62867403749 0.62973102761 0.53707857028 0.39737627022 0.16768377309 0.48561049497 
0.73226132218 0.81902227182 0.65393221558 0.65304912919 0.82882647882 0.65859624535 0.65833730544 0.51857146302 0.32485974548 
0.52563201422 0.37735134811 0.11530021385 0.36478202129 0.5573800624 0.573069626 0.79291144819 0.81226671363 0.83072312 
0.63238929152 0.82243976153 0.73454498698 0.74217500977 0.82453329162 0.82477170085 0.73927633185 0.73888179844 0.76478061424 
0.79153065356 0.63747660205 0.66795162602 0.79534370619 0.49663352353 0.49020155625 0.11450874786 0.043362923252 0.36810210103 
0.46490133667 0.3583632125 0.608503625 0.77593723232 0.66528682886 0.36780649964 0.58092700078 0.55851065365 0.82839372197 
0.72197789467 0.68397208643 0.78295853631 0.66500952864 0.62129145262 0.34411069348 0.34415796778 0.36627463585 0.24801195239 
0.62880822164 0.62828820866 0.14059006584 0.441206367 0.7201410778 0.57491724849 0.7512238465 0.71884507226 0.69353051521 
0.40209665238 0.64661914136 0.38794303103 0.64281274621 0.37632589091 0.47532257733 0.54902856807 0.37494957125 0.35760112258 
0.0023499688491 0.48095286868 0.7139965901 0.64577640846 0.83188976521 0.83192194397 0.62855274711 0.62837213622 0.74246058805 
0.65918938063 0.76469304319 0.77071193998 0.79995938084 0.81601592861 0.62572161324 0.62854775297 0.8108197922 0.82729974258 
0.76754106141 0.69975000034 0.48159660633 0.019801692354 0.081762438651 0.56357403233 0.55863243744 0.55902807905 0.37692139799 
0.6415003198 0.66275146504 0.549274608 0.42281956335 0.67118344252 0.72474104928 0.69231462889 0.67967838066 0.75296085937 
0.83002799386 0.7490882499 0.3440772248 0.34438459603 0.34412610991 0.36099580154 0.62855999285 0.62836257087 0.31207378106 
0.081903537706 0.50893685078 0.7480690539 0.72048368336 0.66260452943 0.66239488769 0.48550659716 0.63874031951 0.7393344375 
0.63714331874 0.39542662387 0.36792901354 0.35134228802 0.56178454833 0.27429165469 0.36561311446 0.36438236472 0.36289423803 
0.34911225614 0.0014146879676 0.017630937295 0.61620321868 0.81897734921 0.53479901017 0.52008347645 0.23526911847 0.23331645842 
0.45671856807 0.51293214197 0.65862331531 0.62598014581 0.1442846974 0.0085937726154 0.00035947565652 0.34486908193 0.36317989855 
0.36436132704 0.36391032154 0.34743575091 0.34839489458 0.38455970504 0.35470732062 0.7383830619 0.68164082154 0.6355586098 
0.42751877165 0.67326772711 0.59052885124 0.78978943225 0.66367751043 0.61146839019 0.58654752924 0.34410071362 0.34407741747 
0.34596012556 0.34512126103 0.34627538577 0.63163388294 0.81626779049 0.83117851469 0.58946323213 0.59751507169 0.73816083537 
0.74255140574 0.77858384506 0.47659739909 0.42216399701 0.82418245915 0.50676236909 0.76916464256 0.34593870991 0.28421584655 
0.34878129916 0.53145604418 0.37756244734 0.36794613308 0.3658834904 0.056676527207 0.0078642727896 0.65009633312 0.76439511617 
0.84575374038 0.8397388437 0.80672173939 0.78365013573 0.42587235835 0.45865181381 0.8201333648 0.73633197573 0.83574654037 
0.83621565691 0.63074249412 0.6142310079 0.0094962373164 0.034212234965 0.093335613888 0.36682737982 0.37569225103 0.56414090715 
0.40715138363 0.35504902343 0.34594011641 0.4845036307 0.64848901487 0.35091662926 0.38684711669 0.4341081999 0.71304656788 
0.74238687511 0.68638978787 0.7210034743 0.61990856059 0.57839105503 0.39587896024 0.34470771429 0.34407963697 0.53663071159 
0.81675846683 0.819353119 0.8321325497 0.831857398 0.82816308078 0.74356772413 0.70265722983 0.4305251805 0.38208254716 
0.36279282358 0.57983718554 0.65173195357 0.5274841767 0.43073882651 0.024807586225 0.0055483373587 0.36388831659 0.37279826521 
0.36601243471 0.3466913925 0.36850533842 0.55064724633 0.82585433174 0.88080015754 0.82740395896 0.81218650152 0.62925088506 
0.8320479658 0.85596758904 0.82896915634 0.83118242264 0.62990954562 0.6311055447 0.83221153912 0.85089845201 0.79170849213 
0.56560632553 0.36783499119 0.34856786887 0.034897838735 0.07390602042 0.36517371129 0.0039120128644 0.021124996378 0.39542878724 
0.42585827416 0.67461649907 0.8308648668 0.41253239306 0.35734809863 0.54870876752 0.73061479287 0.3896665798 0.53887535699 
0.54528377307 0.34432676418 0.34408699934 0.35811159998 0.45359266181 0.084659999772 0.64955541899 0.8313660156 0.60441567475 
0.60154137247 0.82665259182 0.66372707135 0.63724171445 0.48233219487 0.38872128241 0.64493129519 0.67867951899 0.84047734097 
0.49524622842 0.13227239707 0.14761917426 0.4866629553 0.012436598299 0.04632362556 0.34866061089 0.56063795581 0.55315139481 
0.63550743339 0.72467854603 0.82431539313 0.7871466242 0.71161770276 0.63123299967 0.83715480513 0.78147933024 0.82207426008 
0.83658051587 0.77711624049 0.82924849373 0.63836672305 0.83140557218 0.63464910563 0.6373017244 0.62980400515 0.35390897377 
0.34768043004 0.36090289733 0.019992089737 0.6936300206 0.51888901312 0.18292306778 0.67510361324 0.76012489782 0.95882222684 
0.59455806192 0.34918320807 0.34681097324 0.60997783223 0.45706327449 0.48656798485 0.34486240355 0.15380174333 0.2192668918 
0.20668956024 0.095236647956 0.00084918019157 0.62901810923 0.82407840792 0.87985413813 0.60180480907 0.50463134032 0.69121695091 
0.64242340093 0.6286077987 0.40879873059 0.35940871244 0.68918166921 0.4466214857 0.35561819923 0.62179133179 0.34847092435 
0.71002622566 0.54383737134 0.65910435459 0.69059183359 0.83104347022 0.80383727571 0.64448993783 0.80296040668 0.63255855197 
0.64847900492 0.69815819878 0.83600776337 0.83790040389 0.82121109874 0.81785720069 0.83781174258 0.83583645079 0.73434786366 
0.79210303444 0.63390716568 0.63943417717 0.54227814534 0.65984761833 0.63787757104 0.60302186322 0.66186956714 0.66469550126 
0.77984137038 0.43612030803 0.75400375397 0.4260894778 0.40666548125 0.5236177356 0.28569827158 0.44342881112 0.73133559579 
0.55900237488 0.098832056137 0.73036111968 0.59960967688 0.02240985917 0.59209354147 0.30972922719 0.47636998766 0.59494607177 
0.62834235709 0.85386506491 0.86972143721 0.62925980895 0.60124574541 0.38694007779 0.35415674021 0.38662755401 0.46577517162 
0.63306501788 0.35083433439 0.1167454606 0.79738726652 0.61649732017 0.31161890885 0.11509552905 0.7886195007 0.65687601849 
0.77716226009 0.54212894752 0.50152110305 0.36783294835 0.50225895904 0.80075211588 0.77930108333 0.496130743 0.51373883662 
0.79169856571 0.59034957286 0.79936245452 0.79226627771 0.51406725879 0.47128473552 0.51854037761 0.8192809846 0.76250712148 
0.49861440976 0.54913892588 0.54429326667 0.78985019944 0.60638574153 0.79035905508 0.37188878724 0.18585885931 0.60463130659 
0.81223795282 0.8045346565 0.094070606821 0.63717231544 0.6488190183 0.40057368943 0.34529804885 0.29562007059 0.34765156744 
0.74558421069 0.10716847862 0.47740848 0.44822101236 0.59062032002 0.48496190481 0.63659732349 0.78764656997 0.8458159543 
0.82014824108 0.82722344315 0.63104057142 0.629403916 0.81446602314 0.63710598184 0.63224454741 0.63526059205 0.76548133491 
0.60839044167 0.49043672417 0.35986576874 0.50921813982 0.52867136784 0.66800924695 0.55101147362 0.19364520045 0.32319931357 
0.12447564823 0.24669163936 0.41532889655 0.66076881665 0.37719707051 0.40396872517 0.84749816526 0.8768090035 0.8802394982 
0.86725145973 0.36732881422 0.37028530722 0.65712593238 0.44213875203 0.39192925663 0.0614710295 0.14281682691 0.13174137163 
0.5390409606 0.59413072691 0.52950233857 0.7443355559 0.36033191891 0.41588908027 0.62924919324 0.54618072347 0.62859052621 
0.63491348434 0.26919120882 0.34533498257 0.34492572734 0.55407099716 0.36228335122 0.61376043714 0.032729898378 0.0090229086325 
0.53711671827 0.53541791896 0.62880170329 0.29123137282 0.3470625702 0.82815627463 0.83791087304 0.6286935076 0.62914220288 
0.62880380289 0.63055003703 0.64822661926 0.55827540926 0.51280936732 0.67738949529 0.64129273373 0.48884472544 0.10925693233 
0.50544869778 0.5338891534 0.6763858974 0.7041056535 0.45858470109 0.4675750024 0.44568809689 0.39169915939 0.5654435678 
0.7507337227 0.84484934571 0.84679943555 0.9692957225 0.89120859924 0.97307571353 0.93869637789 0.84421848033 0.84552953423 
0.56374634902 0.6978478502 0.39170866006 0.30771002499 0.54267094252 0.55491432962 0.67425425075 0.71075346846 0.54615017343 
0.53441135669 0.24279063427 0.49640778961 0.62859782848 0.71163959956 0.56231885961 0.27696423017 0.63243314364 0.62878963251 
0.69938454042 0.61188449327 0.74254533689 0.74762591443 0.13668971297 0.0012764539709 0.0014537681481 0.34447664163 0.62877003436 
0.35410124785 0.64661140698 0.63487326561 0.63062323384 0.62955296061 0.79819153945 0.63196478124 0.62781201267 0.64272377288 
0.63336759924 0.36134894136 0.42184102796 0.63679148861 0.42684964495 0.40563813463 0.67565384734 0.6887199245 0.68822682109 
0.72495441211 0.79207492287 0.77799938045 0.78452845763 0.79880410998 0.76153388072 0.78610241897 0.7892992791 0.66784171277 
0.68401312216 0.76743499758 0.78959073384 0.76365295824 0.72829907957 0.74573322879 0.76018803338 0.85726397713 0.78982187516 
0.74027787224 0.73960209 0.7470256454 0.73981464382 0.74723793143 0.69079573018 0.61411242178 0.44382505618 0.44544825591 
0.79149620806 0.57542132873 0.70510855431 0.62878621212 0.63018213127 0.59987736165 0.6898717823 0.77583849398 0.36272545699 
0.74877249091 0.6202984592 0.6193741525 0.80195382126 0.6556440247 0.62886628606 0.63316982335 0.63524290792 0.63237555225 
0.6328345667 0.82970725888 0.66224765142 0.62883544726 0.83674369683 0.8079092584 0.83455370774 0.16801252524 0.25057913276 
0.36714494535 0.37428700085 0.71207447742 0.60284411568 0.688479578 0.75049122452 0.75088451338 0.74964033247 0.8264766025 
0.80067031992 0.80083157293 0.80526356706 0.80415530976 0.77181809121 0.70175692811 0.79973281854 0.81785412882 0.80722800311 
0.83452502207 0.69803937122 0.70546190062 0.80047813665 0.79647196362 0.79970832342 0.7897549369 0.74042188839 0.75131362707 
0.75118454567 0.74744381601 0.79510103498 0.54823362317 0.71309485095 0.47454659362 0.44482311509 0.37394130373 0.63599267935 
0.80429554374 0.83444064976 0.797875647 0.68133161984 0.67494192633 0.51691424411 0.72738913403 0.682951562 0.62852473003 
0.62866280721 0.69852504242 0.69080983885 0.6267383517 0.6232496887 0.62976633051 0.72104732251 0.81179050676 0.82929512931 
0.83739615467 0.8371337292 0.81267440388 0.83140580632 0.63780159358 0.64130304971 0.50575869496 0.69597921137 0.71832990697 
0.68193821751 0.80549121488 0.80114248509 0.85274264648 0.85231397238 0.81362596918 0.82432710786 0.79069270032 0.81435332562 
0.80704559921 0.79055046895 0.80357682721 0.82049749673 0.82217717195 0.82055463828 0.82009582663 0.82741491473 0.78991818919 
0.80180311169 0.73375130849 0.74514767242 0.79317656725 0.80226321995 0.83026160788 0.82215209565 0.81964018962 0.81034149074 
0.67970574345 0.75395734486 0.6289487212 0.62334107812 0.62174749908 0.61437154526 0.6672898866 0.83373630033 0.72626179768 
0.74703212165 0.56350288743 0.69754544156 0.74483640487 0.75514895981 0.63939260452 0.63015636454 0.62983319305 0.62962165617 
0.62837310958 0.62865501074 0.63051977017 0.83580972457 0.62885771921 0.60764758996 0.34425936569 0.62675952844 0.68163611191 
0.62704921926 0.64502246738 0.81237689799 0.78547714161 0.65575719906 0.75132939326 0.66420830366 0.69564217532 0.73716658023 
0.80913763143 0.79724814204 0.81961296752 0.86138320001 0.87103473785 0.79439001001 0.86678828 0.87760213428 0.88165627047 
0.8319578953 0.8279313375 0.83173717102 0.88202132539 0.82229318989 0.87253308198 0.76594773434 0.6884074845 0.83912017735 
0.8657549282 0.78587236322 0.85035850624 0.70244303344 0.68199172454 0.82112837283 0.65555510138 0.789073318 0.66823760211 
0.77451868719 0.81421039144 0.63201437003 0.62180994991 0.74892487093 0.79469386402 0.53292597059 0.56925798282 0.72522957897 
0.69830212145 0.74500618817 0.34407703893 0.57344445755 0.62855036958 0.62848974667 0.62854178957 0.62853661183 0.44388471279 
0.62856969343 0.64147441775 0.34421458988 0.41509380684 0.73476694336 0.67980750118 0.72093251815 0.63770938085 0.6614942794 
0.78587941239 0.63897482288 0.82060113239 0.63267585907 0.63031257267 0.67933895114 0.75221660461 0.76981118156 0.81959450549 
0.81658649976 0.79813350839 0.79346259488 0.64277610487 0.83517105321 0.81527767952 0.87713269709 0.82841896256 0.87815971485 
0.83636962127 0.77107776941 0.83831949481 0.688820553 0.78379400578 0.84264943306 0.79147209263 0.81077933034 0.81921197388 
0.73598485301 0.65704957977 0.63592561956 0.64322835784 0.82518651174 0.62843363829 0.81859658316 0.67192683974 0.61628719866 
0.62828526586 0.3820856783 0.69263052526 0.5957868805 0.73106539482 0.74777703484 0.67867737272 0.73849163062 0.3440770769 
0.12904414443 0.69712766563 0.73063622512 0.62854871322 0.62853699574 0.61453711168 0.81280928879 0.62867017749 0.5265408094 
0.74655527476 0.83785443007 0.74872182312 0.55706309832 0.56200855629 0.74074777386 0.81605873437 0.64047673075 0.65524639524 
0.76468945154 0.72739493611 0.76248167349 0.83097419893 0.83085914548 0.79479078343 0.81286535727 0.8519915579 0.69317878786 
0.6499521912 0.66026968245 0.63519783189 0.83673535602 0.83609241289 0.83393390312 0.83763409 0.70152595152 0.62925587736 
0.66988166689 0.65416710851 0.79954981819 0.85607178335 0.78957187122 0.83047650594 0.72851579784 0.58902360133 0.83176002301 
0.63061212278 0.60996401567 0.61116290242 0.82448898656 0.66798145669 0.67248147251 0.63169279587 0.34941727374 0.34447156149 
0.48704790064 0.58485746321 0.59712199392 0.80358157615 0.45208724685 0.34407705888 0.21062865379 0.4647243833 0.42871197472 
0.62855277494 0.62856419392 0.41684295457 0.74885921578 0.34413855896 0.62062769017 0.54842170759 0.32103407821 0.34421170478 
0.32820824473 0.7464513135 0.7136381878 0.79714952307 0.54851898112 0.56886230555 0.82466482535 0.81444313296 0.82389407242 
0.81493743934 0.81856068037 0.79977281209 0.86138268497 0.82382066396 0.8122466457 0.83580709975 0.83637785931 0.7456030361 
0.83795094404 0.74141893777 0.83652909945 0.8359852756 0.63451096085 0.83742538289 0.83664506287 0.82688504345 0.82172683833 
0.81023866663 0.79503447631 0.8249490707 0.81774543959 0.75095813304 0.83096553818 0.79198680502 0.62080924077 0.66819244809 
0.78495890525 0.77489567522 0.47597632934 0.63737533693 0.6105830083 0.47086575681 0.71073351906 0.66357298504 0.5873606562 
0.58281212831 0.43161960939 0.2352611574 0.4364074865 0.49662089637 0.43281331914 0.63888394753 0.58654062814 0.6121839077 
0.76783270168 0.80848297018 0.54876626144 0.59920318425 0.74912874745 0.81122193199 0.68421738408 0.54994454091 0.7131944879 
0.69073711747 0.61196472381 0.67570738726 0.79478829921 0.70802113599 0.68613268348 0.81366303258 0.82827096143 0.80710396221 
0.81905030133 0.8766538517 0.72633695923 0.82830963156 0.83240421169 0.82814566858 0.82845218423 0.83177376978 0.65532955564 
0.82859152756 0.87580317541 0.82986412564 0.83757481641 0.68671643542 0.64873249873 0.86440901733 0.81876039054 0.82949249124 
0.65146361477 0.75140422008 0.64917613279 0.63407915746 0.81585280171 0.72503583256 0.69818791796 0.65649791762 0.65302967808 
0.77760329127 0.73537612309 0.72083681865 0.74429786618 0.7164073016 0.55835120854 0.4756703621 0.46425477469 0.47374945733 
0.83025715429 0.52928080089 0.67967048469 0.62809870026 0.62814536772 0.59378009665 0.61064833755 0.34411059816 0.34415635971 
0.83275207004 0.74845612276 0.74702266635 0.83690615605 0.76500209826 0.75905961491 0.7854330801 0.79946518156 0.80821341931 
0.66997341789 0.82126602809 0.74897063868 0.8088358415 0.809596354 0.79406262906 0.87587399643 0.87785394209 0.86803223107 